<?xml version="1.0"?>
<VTKFile type="UnstructuredGrid"  version="0.1"  >
<UnstructuredGrid>
<Piece  NumberOfPoints="121" NumberOfCells="200">
<Points>
<DataArray  type="Float64"  NumberOfComponents="3"  format="ascii">0 0 0  0.1 0 0  0.2 0 0  0.3 0 0  0.4 0 0  0.5 0 0  0.6 0 0  0.7 0 0  0.8 0 0  0.9 0 0  1 0 0  0 0.1 0  0.1 0.1 0  0.2 0.1 0  0.3 0.1 0  0.4 0.1 0  0.5 0.1 0  0.6 0.1 0  0.7 0.1 0  0.8 0.1 0  0.9 0.1 0  1 0.1 0  0 0.2 0  0.1 0.2 0  0.2 0.2 0  0.3 0.2 0  0.4 0.2 0  0.5 0.2 0  0.6 0.2 0  0.7 0.2 0  0.8 0.2 0  0.9 0.2 0  1 0.2 0  0 0.3 0  0.1 0.3 0  0.2 0.3 0  0.3 0.3 0  0.4 0.3 0  0.5 0.3 0  0.6 0.3 0  0.7 0.3 0  0.8 0.3 0  0.9 0.3 0  1 0.3 0  0 0.4 0  0.1 0.4 0  0.2 0.4 0  0.3 0.4 0  0.4 0.4 0  0.5 0.4 0  0.6 0.4 0  0.7 0.4 0  0.8 0.4 0  0.9 0.4 0  1 0.4 0  0 0.5 0  0.1 0.5 0  0.2 0.5 0  0.3 0.5 0  0.4 0.5 0  0.5 0.5 0  0.6 0.5 0  0.7 0.5 0  0.8 0.5 0  0.9 0.5 0  1 0.5 0  0 0.6 0  0.1 0.6 0  0.2 0.6 0  0.3 0.6 0  0.4 0.6 0  0.5 0.6 0  0.6 0.6 0  0.7 0.6 0  0.8 0.6 0  0.9 0.6 0  1 0.6 0  0 0.7 0  0.1 0.7 0  0.2 0.7 0  0.3 0.7 0  0.4 0.7 0  0.5 0.7 0  0.6 0.7 0  0.7 0.7 0  0.8 0.7 0  0.9 0.7 0  1 0.7 0  0 0.8 0  0.1 0.8 0  0.2 0.8 0  0.3 0.8 0  0.4 0.8 0  0.5 0.8 0  0.6 0.8 0  0.7 0.8 0  0.8 0.8 0  0.9 0.8 0  1 0.8 0  0 0.9 0  0.1 0.9 0  0.2 0.9 0  0.3 0.9 0  0.4 0.9 0  0.5 0.9 0  0.6 0.9 0  0.7 0.9 0  0.8 0.9 0  0.9 0.9 0  1 0.9 0  0 1 0  0.1 1 0  0.2 1 0  0.3 1 0  0.4 1 0  0.5 1 0  0.6 1 0  0.7 1 0  0.8 1 0  0.9 1 0  1 1 0  </DataArray>
</Points>
<Cells>
<DataArray  type="UInt32"  Name="connectivity"  format="ascii">0 1 12  0 11 12  1 2 13  1 12 13  2 3 14  2 13 14  3 4 15  3 14 15  4 5 16  4 15 16  5 6 17  5 16 17  6 7 18  6 17 18  7 8 19  7 18 19  8 9 20  8 19 20  9 10 21  9 20 21  11 12 23  11 22 23  12 13 24  12 23 24  13 14 25  13 24 25  14 15 26  14 25 26  15 16 27  15 26 27  16 17 28  16 27 28  17 18 29  17 28 29  18 19 30  18 29 30  19 20 31  19 30 31  20 21 32  20 31 32  22 23 34  22 33 34  23 24 35  23 34 35  24 25 36  24 35 36  25 26 37  25 36 37  26 27 38  26 37 38  27 28 39  27 38 39  28 29 40  28 39 40  29 30 41  29 40 41  30 31 42  30 41 42  31 32 43  31 42 43  33 34 45  33 44 45  34 35 46  34 45 46  35 36 47  35 46 47  36 37 48  36 47 48  37 38 49  37 48 49  38 39 50  38 49 50  39 40 51  39 50 51  40 41 52  40 51 52  41 42 53  41 52 53  42 43 54  42 53 54  44 45 56  44 55 56  45 46 57  45 56 57  46 47 58  46 57 58  47 48 59  47 58 59  48 49 60  48 59 60  49 50 61  49 60 61  50 51 62  50 61 62  51 52 63  51 62 63  52 53 64  52 63 64  53 54 65  53 64 65  55 56 67  55 66 67  56 57 68  56 67 68  57 58 69  57 68 69  58 59 70  58 69 70  59 60 71  59 70 71  60 61 72  60 71 72  61 62 73  61 72 73  62 63 74  62 73 74  63 64 75  63 74 75  64 65 76  64 75 76  66 67 78  66 77 78  67 68 79  67 78 79  68 69 80  68 79 80  69 70 81  69 80 81  70 71 82  70 81 82  71 72 83  71 82 83  72 73 84  72 83 84  73 74 85  73 84 85  74 75 86  74 85 86  75 76 87  75 86 87  77 78 89  77 88 89  78 79 90  78 89 90  79 80 91  79 90 91  80 81 92  80 91 92  81 82 93  81 92 93  82 83 94  82 93 94  83 84 95  83 94 95  84 85 96  84 95 96  85 86 97  85 96 97  86 87 98  86 97 98  88 89 100  88 99 100  89 90 101  89 100 101  90 91 102  90 101 102  91 92 103  91 102 103  92 93 104  92 103 104  93 94 105  93 104 105  94 95 106  94 105 106  95 96 107  95 106 107  96 97 108  96 107 108  97 98 109  97 108 109  99 100 111  99 110 111  100 101 112  100 111 112  101 102 113  101 112 113  102 103 114  102 113 114  103 104 115  103 114 115  104 105 116  104 115 116  105 106 117  105 116 117  106 107 118  106 117 118  107 108 119  107 118 119  108 109 120  108 119 120  </DataArray>
<DataArray  type="UInt32"  Name="offsets"  format="ascii">3 6 9 12 15 18 21 24 27 30 33 36 39 42 45 48 51 54 57 60 63 66 69 72 75 78 81 84 87 90 93 96 99 102 105 108 111 114 117 120 123 126 129 132 135 138 141 144 147 150 153 156 159 162 165 168 171 174 177 180 183 186 189 192 195 198 201 204 207 210 213 216 219 222 225 228 231 234 237 240 243 246 249 252 255 258 261 264 267 270 273 276 279 282 285 288 291 294 297 300 303 306 309 312 315 318 321 324 327 330 333 336 339 342 345 348 351 354 357 360 363 366 369 372 375 378 381 384 387 390 393 396 399 402 405 408 411 414 417 420 423 426 429 432 435 438 441 444 447 450 453 456 459 462 465 468 471 474 477 480 483 486 489 492 495 498 501 504 507 510 513 516 519 522 525 528 531 534 537 540 543 546 549 552 555 558 561 564 567 570 573 576 579 582 585 588 591 594 597 600 </DataArray>
<DataArray  type="UInt8"  Name="types"  format="ascii">5 5 5 5 5 5 5 5 5 5 5 5 5 5 5 5 5 5 5 5 5 5 5 5 5 5 5 5 5 5 5 5 5 5 5 5 5 5 5 5 5 5 5 5 5 5 5 5 5 5 5 5 5 5 5 5 5 5 5 5 5 5 5 5 5 5 5 5 5 5 5 5 5 5 5 5 5 5 5 5 5 5 5 5 5 5 5 5 5 5 5 5 5 5 5 5 5 5 5 5 5 5 5 5 5 5 5 5 5 5 5 5 5 5 5 5 5 5 5 5 5 5 5 5 5 5 5 5 5 5 5 5 5 5 5 5 5 5 5 5 5 5 5 5 5 5 5 5 5 5 5 5 5 5 5 5 5 5 5 5 5 5 5 5 5 5 5 5 5 5 5 5 5 5 5 5 5 5 5 5 5 5 5 5 5 5 5 5 5 5 5 5 5 5 5 5 5 5 5 5 </DataArray>
</Cells>
<PointData  Vectors="f_13"> 
<DataArray  type="Float64"  Name="f_13"  NumberOfComponents="3" format="ascii">7.3960121705023017e-12 -1.1554339545393244e-12 0.0000000000000000e+00  6.8567117741113523e-12 9.0415736386491369e-13 0.0000000000000000e+00  9.7596472070225602e-12 -5.6301514318422228e-13 0.0000000000000000e+00  1.4154759144335627e-11 -1.5398215344995785e-12 0.0000000000000000e+00  1.6443379496053285e-11 -3.4397680579520783e-12 0.0000000000000000e+00  1.8139241258375819e-11 -8.2894996144527532e-12 0.0000000000000000e+00  6.6226517182818988e-12 -6.5796277326554667e-12 0.0000000000000000e+00  -8.7095565541938598e-12 -9.5089547138439004e-12 0.0000000000000000e+00  -2.7189321005324533e-11 -4.0556209948957284e-12 0.0000000000000000e+00  -3.9332347126277249e-11 -1.8825532968436207e-12 0.0000000000000000e+00  -3.6802036411094047e-11 4.9388862867863833e-13 0.0000000000000000e+00  8.1000000028313235e-01 -3.8095053703380858e-10 0.0000000000000000e+00  8.0999999972473113e-01 1.9294695711655604e-10 0.0000000000000000e+00  8.0999999917238585e-01 6.8059647403098254e-10 0.0000000000000000e+00  8.0999999935830025e-01 4.8165405693424374e-10 0.0000000000000000e+00  8.0999999919134713e-01 7.4634072986235826e-10 0.0000000000000000e+00  8.0999999882653961e-01 1.1094501587166074e-09 0.0000000000000000e+00  8.0999999870550432e-01 1.2973978591493375e-09 0.0000000000000000e+00  8.0999999855288729e-01 1.5755259831907918e-09 0.0000000000000000e+00  8.0999999766001163e-01 2.6061181230435519e-09 0.0000000000000000e+00  8.0999999545262036e-01 4.7849670849206477e-09 0.0000000000000000e+00  8.0999999272714274e-01 7.5386358884325445e-09 0.0000000000000000e+00  1.4400000000164044e+00 -1.0952344981052900e-10 0.0000000000000000e+00  1.4399999999874060e+00 1.0124602860779521e-10 0.0000000000000000e+00  1.4400000006802867e+00 -5.9523693727880442e-10 0.0000000000000000e+00  1.4400000004967550e+00 -4.1996130245067494e-10 0.0000000000000000e+00  1.4399999996025743e+00 3.9494481240024896e-10 0.0000000000000000e+00  1.4399999994687103e+00 5.2372102630883593e-10 0.0000000000000000e+00  1.4399999995296229e+00 5.8865675380405320e-10 0.0000000000000000e+00  1.4399999992168913e+00 1.0030719637952608e-09 0.0000000000000000e+00  1.4399999984481859e+00 1.8246684328116000e-09 0.0000000000000000e+00  1.4399999980211304e+00 2.3452679441318214e-09 0.0000000000000000e+00  1.4399999993085884e+00 -3.9543914322986575e-10 0.0000000000000000e+00  1.8900000001669361e+00 -1.2603534180281053e-10 0.0000000000000000e+00  1.8900000006211688e+00 -5.4673262675408120e-10 0.0000000000000000e+00  1.8900000009056965e+00 -9.6562025054350181e-10 0.0000000000000000e+00  1.8900000001338699e+00 -5.8047553090413890e-11 0.0000000000000000e+00  1.8899999995882510e+00 5.0671509981518673e-10 0.0000000000000000e+00  1.8899999994148238e+00 6.4891875683281263e-10 0.0000000000000000e+00  1.8899999993468526e+00 6.8714264820616887e-10 0.0000000000000000e+00  1.8899999993390837e+00 6.9169518582760967e-10 0.0000000000000000e+00  1.8899999992770971e+00 7.2550104546040235e-10 0.0000000000000000e+00  1.8899999997774750e+00 1.7832928520821846e-10 0.0000000000000000e+00  1.8900000009286171e+00 -1.0789465337217140e-09 0.0000000000000000e+00  2.1600000001861637e+00 -6.6383758106313601e-11 0.0000000000000000e+00  2.1600000007274147e+00 -6.5067583166279589e-10 0.0000000000000000e+00  2.1600000007195370e+00 -6.9112526530800812e-10 0.0000000000000000e+00  2.1599999994707373e+00 6.0969541886316292e-10 0.0000000000000000e+00  2.1599999984529976e+00 1.5683735794008181e-09 0.0000000000000000e+00  2.1599999985268532e+00 1.5101410003204928e-09 0.0000000000000000e+00  2.1599999990855396e+00 9.5960064354198183e-10 0.0000000000000000e+00  2.1599999992316814e+00 7.2887827065971812e-10 0.0000000000000000e+00  2.1599999992155658e+00 6.8403642327359511e-10 0.0000000000000000e+00  2.1599999994361467e+00 5.3404357657349972e-10 0.0000000000000000e+00  2.1599999996562951e+00 6.2010727232794854e-10 0.0000000000000000e+00  2.2500000001083111e+00 7.3556679763785818e-11 0.0000000000000000e+00  2.2500000005681313e+00 -5.3378784490399203e-10 0.0000000000000000e+00  2.2499999995313185e+00 4.8205441724243393e-10 0.0000000000000000e+00  2.2499999972563920e+00 2.7710662698144073e-09 0.0000000000000000e+00  2.2499999967887594e+00 3.1953206875719082e-09 0.0000000000000000e+00  2.2499999978094167e+00 2.1706891470645885e-09 0.0000000000000000e+00  2.2499999984149066e+00 1.5537785413363096e-09 0.0000000000000000e+00  2.2499999985059191e+00 1.4186563910082432e-09 0.0000000000000000e+00  2.2499999984785068e+00 1.4210087282201414e-09 0.0000000000000000e+00  2.2499999985454018e+00 1.5540769072758001e-09 0.0000000000000000e+00  2.2499999985124921e+00 1.6760827712984986e-09 0.0000000000000000e+00  2.1599999999430750e+00 1.7827704099082385e-10 0.0000000000000000e+00  2.1599999993574235e+00 5.4946705559227050e-10 0.0000000000000000e+00  2.1599999963933914e+00 3.5465691010583749e-09 0.0000000000000000e+00  2.1599999945688628e+00 5.2564714222751225e-09 0.0000000000000000e+00  2.1599999958646978e+00 3.9453241085194208e-09 0.0000000000000000e+00  2.1599999972128354e+00 2.7143469046038897e-09 0.0000000000000000e+00  2.1599999975384057e+00 2.4018521713728364e-09 0.0000000000000000e+00  2.1599999975398676e+00 2.3248452806576991e-09 0.0000000000000000e+00  2.1599999975711301e+00 2.2640435905146243e-09 0.0000000000000000e+00  2.1599999979015947e+00 2.2089167964961825e-09 0.0000000000000000e+00  2.1599999962444838e+00 4.2586165578357542e-09 0.0000000000000000e+00  1.8899999992028322e+00 5.9818529465974330e-10 0.0000000000000000e+00  1.8899999962848526e+00 3.4961972897409941e-09 0.0000000000000000e+00  1.8899999931615377e+00 6.5090730842764140e-09 0.0000000000000000e+00  1.8899999941907906e+00 5.3907515463122381e-09 0.0000000000000000e+00  1.8899999963724190e+00 3.4415969010902472e-09 0.0000000000000000e+00  1.8899999969577299e+00 2.9524514222106098e-09 0.0000000000000000e+00  1.8899999970208898e+00 2.8272620733672326e-09 0.0000000000000000e+00  1.8899999972598522e+00 2.6061073731626596e-09 0.0000000000000000e+00  1.8899999976255937e+00 2.3735924404966839e-09 0.0000000000000000e+00  1.8899999972256076e+00 2.7476672554320751e-09 0.0000000000000000e+00  1.8899999935679457e+00 6.2609578707588705e-09 0.0000000000000000e+00  1.4399999970758508e+00 2.4349631943223661e-09 0.0000000000000000e+00  1.4399999934981431e+00 6.0841795633514596e-09 0.0000000000000000e+00  1.4399999940161459e+00 5.4698635088864541e-09 0.0000000000000000e+00  1.4399999966812391e+00 3.0977982318932088e-09 0.0000000000000000e+00  1.4399999974456326e+00 2.5046213501839145e-09 0.0000000000000000e+00  1.4399999974131206e+00 2.4833479903246531e-09 0.0000000000000000e+00  1.4399999977118680e+00 2.2155544104098997e-09 0.0000000000000000e+00  1.4399999980856084e+00 1.9313434966782837e-09 0.0000000000000000e+00  1.4399999980144815e+00 1.9408071650526824e-09 0.0000000000000000e+00  1.4399999975827991e+00 2.2177091785462576e-09 0.0000000000000000e+00  1.4399999981781773e+00 8.5061246501513548e-10 0.0000000000000000e+00  8.0999999518691190e-01 4.4919101343706673e-09 0.0000000000000000e+00  8.0999999569935210e-01 3.7992636210712807e-09 0.0000000000000000e+00  8.0999999824392499e-01 1.6850897349159752e-09 0.0000000000000000e+00  8.0999999885286644e-01 1.2452288220394981e-09 0.0000000000000000e+00  8.0999999858150318e-01 1.4538993447173728e-09 0.0000000000000000e+00  8.0999999871141914e-01 1.2695042379038018e-09 0.0000000000000000e+00  8.0999999888145691e-01 1.0615217232153676e-09 0.0000000000000000e+00  8.0999999899898356e-01 8.6274289537797670e-10 0.0000000000000000e+00  8.0999999947163948e-01 4.3855186609166824e-10 0.0000000000000000e+00  8.1000000104062375e-01 -8.6605597130731092e-10 0.0000000000000000e+00  8.1000000291578267e-01 -2.6388757258488372e-09 0.0000000000000000e+00  4.4180795912818954e-11 1.8362039673368917e-11 0.0000000000000000e+00  2.9926170762328805e-11 1.2324132072052129e-11 0.0000000000000000e+00  1.0547382015057386e-11 2.3237828396963273e-11 0.0000000000000000e+00  3.4582008125091420e-13 2.0631142025148692e-11 0.0000000000000000e+00  -6.1000384564333147e-12 2.4557950684309805e-11 0.0000000000000000e+00  -5.4772948419121050e-12 2.2831698127570348e-11 0.0000000000000000e+00  -8.3023646577925725e-12 2.6881390199672184e-11 0.0000000000000000e+00  -7.6789862326557715e-12 2.7238701436454814e-11 0.0000000000000000e+00  -8.7024667036985300e-12 2.4376075022978583e-11 0.0000000000000000e+00  -6.8238654153082405e-12 1.7705905390515096e-11 0.0000000000000000e+00  -1.3383121395700405e-12 1.0937768801640927e-11 0.0000000000000000e+00  </DataArray> 
</PointData> 
</Piece>
</UnstructuredGrid>
</VTKFile>